74
 energy: -87.599682842131 gnorm: 0.679795575684 xtb: 6.6.1 (8d0f1dd)
Ir          -0.00040000000000        0.10810000000000       -0.34670000000000
C            0.06130000000000        0.31670000000000       -2.63970000000000
C           -0.34020000000000       -1.00750000000000       -3.28000000000000
H           -1.35050000000000       -1.28060000000000       -2.95440000000000
C           -0.31100000000000       -0.94090000000000       -4.80530000000000
C           -0.66810000000000       -2.25270000000000       -5.49310000000000
H            0.68700000000000       -0.60960000000000       -5.13360000000000
H           -1.01360000000000       -0.15630000000000       -5.13610000000000
H           -0.61210000000000       -2.11770000000000       -6.58480000000000
H            0.08610000000000       -3.01830000000000       -5.24680000000000
H            0.31270000000000       -1.83000000000000       -2.94360000000000
H           -0.01570000000000        1.30660000000000       -1.36560000000000
H            1.07160000000000        0.59120000000000       -2.97560000000000
H           -0.59140000000000        1.08330000000000       -3.09580000000000
C           -2.04980000000000       -2.78670000000000       -5.13360000000000
H           -2.06280000000000       -3.10020000000000       -4.07930000000000
H           -2.78680000000000       -1.96960000000000       -5.21300000000000
C           -2.46590000000000       -3.95380000000000       -6.01320000000000
H           -3.44770000000000       -4.35190000000000       -5.73440000000000
H           -2.51370000000000       -3.65550000000000       -7.06820000000000
H           -1.74160000000000       -4.77530000000000       -5.94040000000000
P            2.13790000000000        0.00000000000000        0.00000000000000
N           -3.34700000000000        0.12190000000000       -0.49900000000000
C           -2.13790000000000        0.00000000000000        0.00000000000000
C           -3.52780000000000        0.10790000000000       -1.96630000000000
H           -4.46670000000000       -0.44380000000000       -2.18290000000000
H           -2.67090000000000       -0.44750000000000       -2.39770000000000
C           -3.55340000000000        1.51590000000000       -2.55230000000000
H           -4.36320000000000        2.14280000000000       -2.12470000000000
H           -3.70710000000000        1.45740000000000       -3.64760000000000
H           -2.57780000000000        2.01000000000000       -2.37700000000000
C           -4.55860000000000        0.29840000000000        0.32560000000000
H           -4.28580000000000        0.91480000000000        1.20500000000000
H           -5.28340000000000        0.89120000000000       -0.26830000000000
C           -5.16680000000000       -1.03560000000000        0.75280000000000
H           -5.44990000000000       -1.64840000000000       -0.12640000000000
H           -6.07920000000000       -0.86670000000000        1.35840000000000
H           -4.45010000000000       -1.62250000000000        1.36100000000000
C            2.06650000000000       -0.01320000000000        1.87140000000000
C            3.14490000000000       -1.55720000000000       -0.40320000000000
C            2.99450000000000        1.65240000000000       -0.39310000000000
C            2.28860000000000       -2.69150000000000        0.19840000000000
H            1.26490000000000       -2.69840000000000       -0.22980000000000
H            2.20510000000000       -2.59200000000000        1.30090000000000
H            2.76680000000000       -3.66880000000000       -0.02480000000000
C            4.53540000000000       -1.56400000000000        0.24630000000000
H            4.47690000000000       -1.31180000000000        1.32330000000000
H            5.22590000000000       -0.85340000000000       -0.24680000000000
H            4.97910000000000       -2.57790000000000        0.14410000000000
C            3.22540000000000       -1.72330000000000       -1.92890000000000
H            3.59600000000000       -2.74440000000000       -2.16400000000000
H            3.93060000000000       -1.00170000000000       -2.38500000000000
H            2.23660000000000       -1.58730000000000       -2.41390000000000
C            4.33470000000000        1.82130000000000        0.33730000000000
H            5.11660000000000        1.15200000000000       -0.06700000000000
H            4.23080000000000        1.61910000000000        1.42130000000000
H            4.69070000000000        2.86570000000000        0.20240000000000
C            2.00060000000000        2.72280000000000        0.10200000000000
H            2.40280000000000        3.72980000000000       -0.13880000000000
H            1.85140000000000        2.66620000000000        1.19970000000000
H            1.01120000000000        2.61520000000000       -0.38810000000000
C            3.15710000000000        1.76580000000000       -1.91720000000000
H            2.21710000000000        1.51770000000000       -2.45240000000000
H            3.95510000000000        1.09800000000000       -2.29560000000000
H            3.44490000000000        2.80780000000000       -2.17570000000000
C           -0.31390000000000        0.00000000000000        1.21010000000000
C           -1.72710000000000        0.02120000000000        1.42840000000000
C           -2.18860000000000        0.03620000000000        2.74940000000000
H           -3.25830000000000        0.03030000000000        3.01370000000000
C           -1.22000000000000        0.05100000000000        3.80730000000000
H           -1.58920000000000        0.06580000000000        4.84420000000000
C            0.15670000000000        0.04740000000000        3.57780000000000
H            0.86200000000000        0.06300000000000        4.42360000000000
C            0.69420000000000        0.02060000000000        2.23610000000000
74
 energy: -87.613582283061 gnorm: 0.675101802221 xtb: 6.6.1 (8d0f1dd)
Ir          -0.00040000000000        0.10810000000000       -0.34670000000000
C            0.06130000000000        0.31670000000000       -2.63970000000000
C           -0.34020000000000       -1.00750000000000       -3.28000000000000
H           -1.35050000000000       -1.28060000000000       -2.95440000000000
C           -0.31100000000000       -0.94090000000000       -4.80530000000000
C           -0.66810000000000       -2.25270000000000       -5.49310000000000
H            0.68700000000000       -0.60960000000000       -5.13360000000000
H           -1.01360000000000       -0.15630000000000       -5.13610000000000
H           -0.61210000000000       -2.11770000000000       -6.58480000000000
H            0.08610000000000       -3.01830000000000       -5.24680000000000
H            0.31270000000000       -1.83000000000000       -2.94360000000000
H           -0.01570000000000        1.30660000000000       -1.36560000000000
H            1.07160000000000        0.59120000000000       -2.97560000000000
H           -0.59140000000000        1.08330000000000       -3.09580000000000
C           -2.04980000000000       -2.78670000000000       -5.13360000000000
H           -2.06280000000000       -3.10020000000000       -4.07930000000000
H           -2.78680000000000       -1.96960000000000       -5.21300000000000
C           -2.46590000000000       -3.95380000000000       -6.01320000000000
H           -3.44770000000000       -4.35190000000000       -5.73440000000000
H           -2.51370000000000       -3.65550000000000       -7.06820000000000
H           -1.74160000000000       -4.77530000000000       -5.94040000000000
P            2.13790000000000        0.00000000000000       -0.00000000000000
N           -3.34928941539118        0.12531600977823       -0.48344792491597
C           -2.13790000000000        0.00000000000000       -0.00000000000000
C           -3.54783498529552        0.11608337097590       -1.93569904498313
H           -4.47560044775928       -0.42492924781583       -2.16252278452249
H           -2.71295508218468       -0.43700417585004       -2.37093427132345
C           -3.56287674788930        1.51093876115792       -2.54477145148792
H           -4.35818219531457        2.13070173219705       -2.12591362500997
H           -3.71411448003292        1.44685490633979       -3.62581713982302
H           -2.60621400322672        2.00526681032360       -2.36400721915271
C           -4.55667198684572        0.30035486490206        0.32685515390471
H           -4.28729422753301        0.90109539472563        1.20366609363732
H           -5.28247007124123        0.87639397517166       -0.26299798607263
C           -5.16171838974293       -1.03082052569074        0.75295386657809
H           -5.43933582205232       -1.63459216828957       -0.11537991777382
H           -6.06097008861850       -0.86413349217295        1.35105365773196
H           -4.45153272417492       -1.60575808084662        1.35223448318747
C            2.05960194419435       -0.00902323752001        1.87311007201756
C            3.15033321107475       -1.54573985273675       -0.39902833397991
C            3.01361894049157        1.64413554258204       -0.38364421354865
C            2.30098809862040       -2.67817880376209        0.19454583065792
H            1.28765317063575       -2.67549779832394       -0.22597551247639
H            2.21624241285946       -2.56757528800868        1.28064303692556
H            2.75583316570805       -3.65306927519957       -0.01599689135735
C            4.53288665330714       -1.56612376518283        0.24382607467270
H            4.46462538290617       -1.30345241310540        1.30203218637062
H            5.21229136295216       -0.86698053367842       -0.24653078796930
H            4.97314381673994       -2.56646160530807        0.15806883056043
C            3.24435294639492       -1.73279910953688       -1.91372152031898
H            3.59968527049657       -2.74031798511466       -2.15793583535388
H            3.93386153721029       -1.01716932946214       -2.36603082874394
H            2.26771699486742       -1.59470037966637       -2.38300264912788
C            4.34215327565664        1.83255951759191        0.33761547163750
H            5.11060443204235        1.17291342293746       -0.06538501010269
H            4.22446388835556        1.62296264578012        1.40265879326563
H            4.69141463680607        2.86420318387067        0.21468081498346
C            2.03904438235524        2.72844298165504        0.10206328403735
H            2.42229877827916        3.72737773141621       -0.13027889701564
H            1.88283482644014        2.65943004853209        1.18202302955966
H            1.05780697761444        2.63189089696034       -0.37588340355865
C            3.20675661627703        1.79846578821074       -1.89357362665146
H            2.28457354591006        1.57486082833713       -2.42333663412407
H            3.97681547053524        1.12484724628774       -2.27454522692666
H            3.48289081477120        2.82302628117803       -2.15963851424758
C           -0.31390000000001       -0.00000000000001        1.21010000000001
C           -1.72900443502069        0.00610521245247        1.42829212701928
C           -2.18049113842156        0.02687992966624        2.74061681976392
H           -3.23523270695722        0.02916305144813        3.01519535098307
C           -1.21433792111529        0.05278299622656        3.78106564349325
H           -1.58199544662305        0.07600710815115        4.80496426357139
C            0.15190151757462        0.05065698853631        3.57087611016961
H            0.83590731341978        0.07872917843153        4.41708661069981
C            0.68682526155172        0.01917553301976        2.24770864044242
74
 energy: -87.617243742584 gnorm: 0.675118755072 xtb: 6.6.1 (8d0f1dd)
Ir          -0.00040000000000        0.10810000000000       -0.34670000000000
C            0.06130000000000        0.31670000000000       -2.63970000000000
C           -0.34020000000000       -1.00750000000000       -3.28000000000000
H           -1.35050000000000       -1.28060000000000       -2.95440000000000
C           -0.31100000000000       -0.94090000000000       -4.80530000000000
C           -0.66810000000000       -2.25270000000000       -5.49310000000000
H            0.68700000000000       -0.60960000000000       -5.13360000000000
H           -1.01360000000000       -0.15630000000000       -5.13610000000000
H           -0.61210000000000       -2.11770000000000       -6.58480000000000
H            0.08610000000000       -3.01830000000000       -5.24680000000000
H            0.31270000000000       -1.83000000000000       -2.94360000000000
H           -0.01570000000000        1.30660000000000       -1.36560000000000
H            1.07160000000000        0.59120000000000       -2.97560000000000
H           -0.59140000000000        1.08330000000000       -3.09580000000000
C           -2.04980000000000       -2.78670000000000       -5.13360000000000
H           -2.06280000000000       -3.10020000000000       -4.07930000000000
H           -2.78680000000000       -1.96960000000000       -5.21300000000000
C           -2.46590000000000       -3.95380000000000       -6.01320000000000
H           -3.44770000000000       -4.35190000000000       -5.73440000000000
H           -2.51370000000000       -3.65550000000000       -7.06820000000000
H           -1.74160000000000       -4.77530000000000       -5.94040000000000
P            2.13790000000000        0.00000000000000       -0.00000000000000
N           -3.35377954210269        0.13130267983681       -0.46620341651328
C           -2.13790000000000        0.00000000000000       -0.00000000000000
C           -3.57027496931163        0.11470924429682       -1.90618650462871
H           -4.50468022761117       -0.40922843123236       -2.12137495333212
H           -2.75234070245411       -0.44527943211272       -2.35050503054083
C           -3.58440469881785        1.50782205024378       -2.52259266911540
H           -4.37745008242509        2.12508879118477       -2.11153141904728
H           -3.73270239676244        1.42733461419216       -3.59646215881036
H           -2.63375316758852        1.99996178807797       -2.34115808754446
C           -4.55337673411159        0.30591814169693        0.34224541460713
H           -4.29021665764217        0.89704709549689        1.22106213806021
H           -5.28111544352633        0.87043813243693       -0.24651979004834
C           -5.15364811009725       -1.03008830411929        0.76293886397110
H           -5.42573982849779       -1.62480067406495       -0.10594407227186
H           -6.04735682392260       -0.86403581760926        1.35776605180331
H           -4.44079513469292       -1.59664908417881        1.35570377689740
C            2.05842520041881       -0.00198349328609        1.87387054762557
C            3.15963596367162       -1.53580380732500       -0.39245724611102
C            3.04100868518564        1.64028455253653       -0.37303503391330
C            2.30499166838418       -2.65691650592064        0.20354093230446
H            1.29760691094542       -2.64200229255576       -0.21957027795789
H            2.22376223223139       -2.53299185599692        1.28280509545155
H            2.74972517290007       -3.63003640282745       -0.00212742472452
C            4.53575682837435       -1.54925989311589        0.25531760636254
H            4.45945053525917       -1.27385350660306        1.30399692609020
H            5.21147379070923       -0.86131258781733       -0.24343458142786
H            4.96609617624086       -2.54778022134658        0.18323609147718
C            3.26152860367002       -1.73022873141339       -1.90279428847417
H            3.61590307377478       -2.73398768540018       -2.13302636937968
H            3.95055206251488       -1.01982083835639       -2.35019330578584
H            2.28870272625357       -1.59815583366974       -2.36769516193895
C            4.36126214867275        1.82557971452321        0.35789456426113
H            5.13072745258521        1.17924783457658       -0.04891528284574
H            4.23664653164102        1.61414627838593        1.41548331217397
H            4.69558193737165        2.85556618636511        0.23964567494110
C            2.07666796259128        2.72968976100985        0.11299696328280
H            2.47220661358735        3.71726041594653       -0.11528466578961
H            1.92426524160787        2.65271628906142        1.18683315719077
H            1.10068664604351        2.64586003188285       -0.36764720689760
C            3.25430346647905        1.81759902041205       -1.87631603108181
H            2.33654123669062        1.62823419372217       -2.41850190779273
H            4.01927554833268        1.14500908949336       -2.25256557805420
H            3.55365216854620        2.83815204716094       -2.10590192349996
C           -0.31390000000004       -0.00000000000002        1.21010000000002
C           -1.73056388123893       -0.00412112053788        1.42713797627407
C           -2.17903724192096        0.02298919255709        2.73449001719249
H           -3.22553264126444        0.02090732337378        3.01725274793762
C           -1.21376822093763        0.05957874234627        3.76576149011384
H           -1.58190673225701        0.09396349435591        4.78295382130616
C            0.15039908326181        0.06262925724445        3.56661092347584
H            0.81884110974722        0.10607717565979        4.41684558193407
C            0.68376529417149        0.02295371077302        2.25451020451607
74
 energy: -87.619400042326 gnorm: 0.675722299648 xtb: 6.6.1 (8d0f1dd)
Ir          -0.00040000000000        0.10810000000000       -0.34670000000000
C            0.06130000000000        0.31670000000000       -2.63970000000000
C           -0.34020000000000       -1.00750000000000       -3.28000000000000
H           -1.35050000000000       -1.28060000000000       -2.95440000000000
C           -0.31100000000000       -0.94090000000000       -4.80530000000000
C           -0.66810000000000       -2.25270000000000       -5.49310000000000
H            0.68700000000000       -0.60960000000000       -5.13360000000000
H           -1.01360000000000       -0.15630000000000       -5.13610000000000
H           -0.61210000000000       -2.11770000000000       -6.58480000000000
H            0.08610000000000       -3.01830000000000       -5.24680000000000
H            0.31270000000000       -1.83000000000000       -2.94360000000000
H           -0.01570000000000        1.30660000000000       -1.36560000000000
H            1.07160000000000        0.59120000000000       -2.97560000000000
H           -0.59140000000000        1.08330000000000       -3.09580000000000
C           -2.04980000000000       -2.78670000000000       -5.13360000000000
H           -2.06280000000000       -3.10020000000000       -4.07930000000000
H           -2.78680000000000       -1.96960000000000       -5.21300000000000
C           -2.46590000000000       -3.95379999999999       -6.01320000000000
H           -3.44770000000000       -4.35190000000000       -5.73440000000000
H           -2.51370000000000       -3.65550000000000       -7.06820000000000
H           -1.74160000000000       -4.77530000000000       -5.94040000000000
P            2.13789999999999        0.00000000000000       -0.00000000000000
N           -3.36024635523231        0.13536519256786       -0.44762810346777
C           -2.13790000000000        0.00000000000000       -0.00000000000001
C           -3.59948185118461        0.11061109477453       -1.87920416279075
H           -4.54571107775059       -0.39932882561008       -2.07529348913262
H           -2.79669222698607       -0.45982624004293       -2.33799894733197
C           -3.61333181207873        1.50369187242583       -2.50093887357692
H           -4.40919507268643        2.11794541174600       -2.09198188470294
H           -3.75925496774240        1.41448328250885       -3.57316416326938
H           -2.66430519723524        1.99603272925199       -2.31572391437006
C           -4.54999411910565        0.30954161162174        0.36890289422413
H           -4.28776490449057        0.89503665836236        1.25025477370167
H           -5.28230080219567        0.87081652933523       -0.21485117726174
C           -5.14486798220550       -1.03325648809835        0.78475510637687
H           -5.41328876266452       -1.62115205996968       -0.08897552760264
H           -6.03727375320227       -0.87274378020548        1.38110717799484
H           -4.42539186483407       -1.59684713559796        1.37075146080719
C            2.05864091291834        0.00403109026456        1.87332374399433
C            3.16873243530766       -1.52672759949667       -0.38196072978754
C            3.06891377242077        1.63669487202276       -0.35715410016587
C            2.30970559490953       -2.64020866194508        0.21845223185431
H            1.30385156975335       -2.61399623758032       -0.20708672286501
H            2.22937794853937       -2.50055918621943        1.29538498276889
H            2.74456416040151       -3.61833595626788        0.02098271433254
C            4.54086664912300       -1.52958424439891        0.27364184537600
H            4.45712226297653       -1.22948424929298        1.31483451927501
H            5.21837889376697       -0.85407448647279       -0.23842406425087
H            4.96766222799366       -2.53068617478202        0.22547849370374
C            3.28213025193904       -1.72996795162479       -1.89015904433374
H            3.64184690256237       -2.73382290856089       -2.10901257534524
H            3.97185812876707       -1.01927041131700       -2.33432417459865
H            2.31141816517806       -1.60293601631559       -2.35937023151629
C            4.38481148928126        1.81365791387928        0.38660716105395
H            5.16229020972844        1.18021912477629       -0.02363834937309
H            4.25274058941398        1.59003806900939        1.43982708448417
H            4.71095300209589        2.84785774708025        0.28307158550540
C            2.11502351676143        2.73357105162780        0.13006484461143
H            2.52678557015086        3.71609693003827       -0.09053725785314
H            1.96236927618705        2.64834255170665        1.20229520171728
H            1.14176574720102        2.66232856190161       -0.35624128435121
C            3.30789656278979        1.83565599248701       -1.85512448500641
H            2.39244871876151        1.68508933763683       -2.41776520135812
H            4.06529147528513        1.15527008375709       -2.23139516833769
H            3.64214185989604        2.85550683697642       -2.04816789124489
C           -0.31390000000007       -0.00000000000004        1.21010000000004
C           -1.73084600028861       -0.00895690045237        1.42560498987890
C           -2.18040946051746        0.02161119624403        2.73172003938090
H           -3.22413733327422        0.01129733888594        3.01969238246173
C           -1.21605382335240        0.07362181689249        3.76047163790672
H           -1.58524918278546        0.11807646334199        4.77590483011948
C            0.14986706279814        0.08297195308720        3.56537092831413
H            0.80876412409673        0.14389493076831        4.42067586320766
C            0.68263792813643        0.02990823286401        2.25754813115684
74
 energy: -87.621038079905 gnorm: 0.676270172138 xtb: 6.6.1 (8d0f1dd)
Ir          -0.00040000000000        0.10810000000000       -0.34670000000000
C            0.06130000000000        0.31670000000000       -2.63970000000000
C           -0.34020000000000       -1.00750000000000       -3.28000000000000
H           -1.35050000000000       -1.28060000000000       -2.95440000000000
C           -0.31100000000000       -0.94090000000000       -4.80530000000000
C           -0.66810000000000       -2.25270000000000       -5.49310000000000
H            0.68700000000000       -0.60960000000000       -5.13360000000000
H           -1.01360000000000       -0.15630000000000       -5.13610000000000
H           -0.61210000000000       -2.11770000000000       -6.58480000000000
H            0.08610000000000       -3.01830000000000       -5.24680000000000
H            0.31270000000000       -1.83000000000000       -2.94360000000000
H           -0.01570000000000        1.30660000000000       -1.36560000000000
H            1.07160000000000        0.59120000000000       -2.97560000000000
H           -0.59140000000000        1.08330000000000       -3.09580000000000
C           -2.04980000000000       -2.78670000000000       -5.13360000000000
H           -2.06280000000000       -3.10020000000000       -4.07930000000000
H           -2.78680000000000       -1.96960000000000       -5.21300000000000
C           -2.46590000000000       -3.95379999999999       -6.01320000000000
H           -3.44770000000000       -4.35190000000000       -5.73440000000000
H           -2.51370000000000       -3.65550000000000       -7.06820000000000
H           -1.74160000000000       -4.77530000000000       -5.94040000000000
P            2.13789999999999        0.00000000000001       -0.00000000000000
N           -3.36777116519404        0.13572559604192       -0.42857964650910
C           -2.13790000000000        0.00000000000000       -0.00000000000001
C           -3.63402679803224        0.10399400796153       -1.85415454259819
H           -4.59214131373714       -0.39487613789297       -2.02703238250137
H           -2.84778664109410       -0.47921276189423       -2.32985632825257
C           -3.64898460503211        1.49730781260025       -2.47889216946784
H           -4.44885188859968        2.10889121803613       -2.07071948523509
H           -3.79204820923430        1.40712155374347       -3.55150906916448
H           -2.70091897241345        1.99156186017607       -2.28914957926510
C           -4.54552723823824        0.30810863225682        0.40421019284729
H           -4.27642830070460        0.88879894462386        1.28707305972414
H           -5.28541542123336        0.87304373625427       -0.16743849532573
C           -5.13473598785618       -1.04036144782461        0.81690785670040
H           -5.40332029815268       -1.62303358534178       -0.06120500814905
H           -6.02588140610389       -0.88879424665387        1.41864368866012
H           -4.40817995407991       -1.60462479825319        1.39487459189887
C            2.05808439791929        0.00895115115773        1.87179259484526
C            3.17603917960932       -1.52010282070920       -0.36761911355793
C            3.09533050453528        1.63243083754189       -0.33756255386064
C            2.31375056670349       -2.62761979857084        0.23943742801992
H            1.30751624476381       -2.59698332337967       -0.18740381058366
H            2.23349690762842       -2.47464040715954        1.31570427772106
H            2.74129809273308       -3.61127035112977        0.05205236045669
C            4.54448605578602       -1.50824008802013        0.29815212724590
H            4.45558571437056       -1.17363234979374        1.33014335953428
H            5.22877160137768       -0.85172394966966       -0.23215169932820
H            4.96909868756265       -2.51316462860599        0.28525068553921
C            3.30280481005424       -1.73250207043190       -1.87418490580588
H            3.67289152152949       -2.73595217772330       -2.08281827824200
H            3.99270884405577       -1.01925780746000       -2.31649246569895
H            2.33510283729693       -1.61419926238285       -2.35480256154011
C            4.40699927902568        1.79378294824174        0.42334285321284
H            5.19518431937484        1.17663112077598        0.00598529739887
H            4.26964085950517        1.54773595294911        1.47196933571781
H            4.72918315417003        2.83354720774326        0.34565993218535
C            2.14891265377816        2.73387715931830        0.15248961843646
H            2.57487489604226        3.71440129779466       -0.05750681076561
H            1.99331936798723        2.64246264538233        1.22455628969542
H            1.17745836384878        2.67549501778441       -0.33983520816107
C            3.35749058652879        1.84799299002198       -1.82988785487907
H            2.44531377635787        1.73951457221080       -2.41259699345811
H            4.10228794518034        1.15430215017658       -2.21024729698629
H            3.73075925237404        2.86267685468356       -1.99257599456483
C           -0.31390000000010       -0.00000000000007        1.21010000000006
C           -1.72988871738429       -0.00913201830936        1.42428815238895
C           -2.18145494976081        0.02417948740520        2.73117625924276
H           -3.22485445565213        0.00164934330571        3.02200439960483
C           -1.21852026930414        0.09350920628446        3.76012363211735
H           -1.58830007002635        0.14913651368991        4.77569344528761
C            0.14937424831996        0.11008102657762        3.56501344050489
H            0.80307191756358        0.19297039796810        4.42353268080987
C            0.68198104645221        0.04001273440847        2.25835907666933
74
 energy: -87.622155320830 gnorm: 0.676643964322 xtb: 6.6.1 (8d0f1dd)
Ir          -0.00040000000000        0.10810000000000       -0.34670000000000
C            0.06130000000000        0.31670000000000       -2.63970000000000
C           -0.34020000000000       -1.00750000000000       -3.28000000000000
H           -1.35050000000000       -1.28060000000000       -2.95440000000000
C           -0.31100000000000       -0.94090000000000       -4.80530000000000
C           -0.66810000000001       -2.25270000000000       -5.49310000000000
H            0.68700000000000       -0.60960000000000       -5.13360000000000
H           -1.01360000000000       -0.15630000000000       -5.13610000000000
H           -0.61210000000000       -2.11770000000000       -6.58480000000000